 Gaussian 09, Revision D.01,
 Gaussian 09:  ES64L-G09RevD.01 24-Apr-2013

 -----------------------------------
 #p rmp2/aug-cc-pVDZ opt freq nosymm
 -----------------------------------

 ------------------------------------------
 CH3CH2CH2Cl - optimization and frequencies
 ------------------------------------------
 Symbolic Z-matrix:
 Charge =  0 Multiplicity = 1

 SCF Done:  E(RHF) =  -577.201619475     A.U. after   12 cycles
 E2 =    -0.6007734168D+00 EUMP2 =    -0.57780239289149D+03
 SCF Done:  E(RHF) =  -577.203111768     A.U. after   11 cycles
 E2 =    -0.6015572546D+00 EUMP2 =    -0.57780466902253D+03
 SCF Done:  E(RHF) =  -577.203363954     A.U. after   10 cycles
 E2 =    -0.6015455812D+00 EUMP2 =    -0.57780490953494D+03
 SCF Done:  E(RHF) =  -577.203478526     A.U. after    9 cycles
 E2 =    -0.6014466814D+00 EUMP2 =    -0.57780492520705D+03
 SCF Done:  E(RHF) =  -577.203494996     A.U. after    8 cycles
 E2 =    -0.6014315588D+00 EUMP2 =    -0.57780492655522D+03
 Optimization completed.
    -- Stationary point found.
 Normal termination of Gaussian 09 at Mon Oct 26 20:15:43 2015.

 ----------------------------------------------------------------------
 #P Geom=AllCheck Guess=TCheck SCRF=Check GenChk RMP2(FC)/Aug-CC-pVDZ F
 req
 ----------------------------------------------------------------------

 Structure from the checkpoint file:  "CH3CH2CH2Cl_MP2_aug-cc-pVDZ_opt_freq_298K.chk"
 ------------------------------------------
 CH3CH2CH2Cl - optimization and frequencies
 ------------------------------------------
 Charge =  0 Multiplicity = 1

                          Input orientation:
 ---------------------------------------------------------------------
 Center     Atomic      Atomic             Coordinates (Angstroms)
 Number     Number       Type             X           Y           Z
 ---------------------------------------------------------------------
      1          6           0       -0.359556   -1.874358    0.000000
      2          6           0       -0.376492   -0.339915    0.000000
      3          6           0       -1.807183    0.181367    0.000000
      4         17           0       -1.847493    1.990276    0.000000
      5          1           0        0.673633   -2.253456    0.000000
      6          1           0       -0.866649   -2.277771    0.891573
      7          1           0       -0.866649   -2.277771   -0.891573
      8          1           0        0.148085    0.050591    0.886956
      9          1           0        0.148085    0.050591   -0.886956
     10          1           0       -2.356391   -0.139776   -0.896610
     11          1           0       -2.356391   -0.139776    0.896610
 ---------------------------------------------------------------------

 SCF Done:  E(RHF) =  -577.203494996     A.U. after    1 cycles
 E2 =    -0.6014315580D+00 EUMP2 =    -0.57780492655441D+03
 E2 =    -0.6014315580D+00 EUMP2 =    -0.57780492655441D+03

 Alpha  occ. eigenvalues -- -104.81676 -11.30155 -11.24755 -11.23932 -10.54282
 Alpha  occ. eigenvalues --   -8.01043  -8.00736  -8.00731  -1.13538  -1.04364
 Alpha  occ. eigenvalues --   -0.91112  -0.81659  -0.66034  -0.60078  -0.57777
 Alpha  occ. eigenvalues --   -0.57185  -0.51039  -0.49438  -0.49371  -0.42941
 Alpha  occ. eigenvalues --   -0.42756
 Alpha virt. eigenvalues --    0.03437   0.04582   0.04780   0.05484   0.07240
 Alpha virt. eigenvalues --    0.07462   0.07997   0.09510   0.11578   0.13389
 Alpha virt. eigenvalues --    0.15352   0.16180   0.16440   0.16630   0.17215

 Mulliken charges:
               1
     1  C    0.273354
     2  C    0.215240
     3  C   -0.138060
     4  Cl  -0.144296
     5  H   -0.067749
     6  H   -0.045004
     7  H   -0.045004
     8  H   -0.044758
     9  H   -0.044758
    10  H    0.020518
    11  H    0.020518
 Sum of Mulliken charges =   0.00000

 Dipole moment (field-independent basis, Debye):
    X=              0.3786    Y=             -2.4780    Z=              0.0000  Tot=              2.5067
 Quadrupole moment (field-independent basis, Debye-Ang):
   XX=            -34.2949   YY=            -38.0103   ZZ=            -33.0766
   XY=              4.3445   XZ=              0.0000   YZ=              0.0000

  Exact polarizability:  50.331  -5.151  65.956   0.000   0.000  45.907
 Approx polarizability:  44.221  -0.345  51.301   0.000   0.000  43.984

                      1                      2                      3
                      A                      A                      A
 Frequencies --    117.1189               235.3770               235.6454
 Red. masses --      2.5207                 1.0920                 3.1324
 Frc consts  --      0.0204                 0.0356                 0.1025
 IR Inten    --      1.4667                 0.0096                 1.8652

                      4                      5                      6
                      A                      A                      A
 Frequencies --    366.3292               748.1480               758.1051
 Red. masses --      4.3938                 1.0745                 4.5880
 Frc consts  --      0.3474                 0.3543                 1.5536
 IR Inten    --      2.3415                 2.1884                32.3362

                      7                      8                      9
                      A                      A                      A
 Frequencies --    865.8628               916.9361              1065.7366
 Red. masses --      1.1695                 1.7742                 2.5708
 Frc consts  --      0.5166                 0.8789                 1.7203
 IR Inten    --      0.0572                13.3607                 1.1879

                     10                     11                     12
                      A                      A                      A
 Frequencies --   1094.7305              1128.7246              1238.8249
 Red. masses --      1.2447                 2.1672                 1.3519
 Frc consts  --      0.8789                 1.6268                 1.2224
 IR Inten    --      0.7465                 0.2050                 0.3884

                     13                     14                     15
                      A                      A                      A
 Frequencies --   1273.5086              1310.6312              1359.8648
 Red. masses --      1.2335                 1.1033                 1.4980
 Frc consts  --      1.1787                 1.1166                 1.6321
 IR Inten    --     20.6368                 0.0094                 8.6979

                     16                     17                     18
                      A                      A                      A
 Frequencies --   1394.7099              1475.6993              1480.8527
 Red. masses --      1.2676                 1.0975                 1.0577
 Frc consts  --      1.4527                 1.4081                 1.3666
 IR Inten    --      1.4907                 1.6291                 0.4669

                     19                     20                     21
                      A                      A                      A
 Frequencies --   1490.1237              1495.8815              3060.9981
 Red. masses --      1.0374                 1.0842                 1.0365
 Frc consts  --      1.3572                 1.4293                 5.7218
 IR Inten    --      7.2045                 6.0065                21.6864

                     22                     23                     24
                      A                      A                      A
 Frequencies --   3081.5501              3104.7888              3130.5136
 Red. masses --      1.0603                 1.0572                 1.1026
 Frc consts  --      5.9323                 6.0046                 6.3666
 IR Inten    --      8.0326                25.2261                 0.0327

                     25                     26                     27
                      A                      A                      A
 Frequencies --   3151.9324              3160.0778              3178.0091
 Red. masses --      1.1034                 1.1011                 1.1104
 Frc consts  --      6.4589                 6.4782                 6.6078
 IR Inten    --     26.5290                22.9884                15.7364

 - Thermochemistry -
 -------------------
 Temperature   298.150 Kelvin.  Pressure   1.00000 Atm.
 Atom     1 has atomic number  6 and mass  12.00000

 Molecular mass:    78.02363 amu.
 Principal axes and moments of inertia in atomic units:
                           1         2         3
     Eigenvalues --    70.50906 765.90462 802.07189
           X           -0.39415   0.91905   0.00000
           Y            0.91905   0.39415   0.00000
           Z            0.00000   0.00000   1.00000
 This molecule is an asymmetric top.
 Rotational symmetry number  1.
 Rotational temperatures (Kelvin)      1.22841     0.11309     0.10799
 Rotational constants (GHZ):          25.59588     2.35635     2.25010
 Zero-point vibrational energy     250741.4 (Joules/Mol)
                                   59.92862 (Kcal/Mol)
 Warning -- explicit consideration of   4 degrees of freedom as
           vibrations may cause significant error
 Vibrational temperatures:    168.51   338.65   339.04   527.07  1076.42
          (Kelvin)           1090.74  1245.78  1319.26  1533.36  1575.07
                             1623.98  1782.39  1832.29  1885.70  1956.54
                             2006.67  2123.20  2130.61  2143.95  2152.24
                             4404.09  4433.66  4467.09  4504.11  4534.92
                             4546.64  4572.44

 Zero-point correction=                           0.095502 (Hartree/Particle)
 Thermal correction to Energy=                    0.100844
 Thermal correction to Enthalpy=                  0.101789
 Thermal correction to Gibbs Free Energy=         0.066947
 Sum of electronic and zero-point Energies=           -577.709424
 Sum of electronic and thermal Energies=              -577.704082
 Sum of electronic and thermal Enthalpies=            -577.703138
 Sum of electronic and thermal Free Energies=         -577.737979

                     E (Thermal)             CV                S
                      KCal/Mol        Cal/Mol-Kelvin    Cal/Mol-Kelvin
 Total                   63.281             17.381             73.329
 Electronic               0.000              0.000              0.000
 Translational            0.889              2.981             38.978
 Rotational               0.889              2.981             25.274
 Vibrational             61.503             11.419              9.077
 Vibration     1          0.608              1.935              3.147
 Vibration     2          0.655              1.787              1.838
 Vibration     3          0.655              1.786              1.836
 Vibration     4          0.739              1.542              1.095

 Optimization completed.
    -- Stationary point found.
 Normal termination of Gaussian 09 at Mon Oct 26 20:19:51 2015.
