 Gaussian 09, Revision D.01,
 Gaussian 09:  ES64L-G09RevD.01 24-Apr-2013

 -----------------------------------------------------
 #p rmp2/aug-cc-pVDZ opt freq Temperature=528.5 nosymm
 -----------------------------------------------------

 ------------------------------------------
 CH3CH2CH2Cl - optimization and frequencies
 ------------------------------------------
 Symbolic Z-matrix:
 Charge =  0 Multiplicity = 1

 SCF Done:  E(RHF) =  -577.203494996     A.U. after   12 cycles
 E2 =    -0.6014315583D+00 EUMP2 =    -0.57780492655424D+03
 Optimization completed.
    -- Stationary point found.
 Normal termination of Gaussian 09 at Mon Oct 26 20:20:20 2015.

 ----------------------------------------------------------------------
 #P Geom=AllCheck Guess=TCheck SCRF=Check GenChk RMP2(FC)/Aug-CC-pVDZ F
 req
 ----------------------------------------------------------------------

 Structure from the checkpoint file:  "CH3CH2CH2Cl_MP2_aug-cc-pVDZ_opt_freq_528K.chk"
 ------------------------------------------
 CH3CH2CH2Cl - optimization and frequencies
 ------------------------------------------
 Charge =  0 Multiplicity = 1

                          Input orientation:
 ---------------------------------------------------------------------
 Center     Atomic      Atomic             Coordinates (Angstroms)
 Number     Number       Type             X           Y           Z
 ---------------------------------------------------------------------
      1          6           0       -2.382058   -0.214688    0.000000
      2          6           0       -0.905909   -0.633960    0.000000
      3          6           0        0.000000    0.589942    0.000000
      4         17           0        1.745961    0.115182    0.000000
      5          1           0       -3.038810   -1.097791    0.000000
      6          1           0       -2.624955    0.386050    0.891573
      7          1           0       -2.624955    0.386050   -0.891573
      8          1           0       -0.680351   -1.247800    0.886956
      9          1           0       -0.680351   -1.247800   -0.886956
     10          1           0       -0.152058    1.207714   -0.896610
     11          1           0       -0.152058    1.207714    0.896610
 ---------------------------------------------------------------------

 SCF Done:  E(RHF) =  -577.203494996     A.U. after    1 cycles
 E2 =    -0.6014315588D+00 EUMP2 =    -0.57780492655476D+03
 E2 =    -0.6014315588D+00 EUMP2 =    -0.57780492655476D+03

 Alpha  occ. eigenvalues -- -104.81676 -11.30155 -11.24755 -11.23932 -10.54282
 Alpha  occ. eigenvalues --   -8.01043  -8.00736  -8.00731  -1.13538  -1.04364
 Alpha  occ. eigenvalues --   -0.91112  -0.81659  -0.66034  -0.60078  -0.57777
 Alpha  occ. eigenvalues --   -0.57185  -0.51039  -0.49438  -0.49371  -0.42941
 Alpha  occ. eigenvalues --   -0.42756
 Alpha virt. eigenvalues --    0.03437   0.04582   0.04780   0.05484   0.07240
 Alpha virt. eigenvalues --    0.07462   0.07997   0.09510   0.11578   0.13389
 Alpha virt. eigenvalues --    0.15352   0.16180   0.16440   0.16630   0.17215

 Mulliken charges:
               1
     1  C    0.273355
     2  C    0.215241
     3  C   -0.138063
     4  Cl  -0.144296
     5  H   -0.067749
     6  H   -0.045005
     7  H   -0.045005
     8  H   -0.044759
     9  H   -0.044759
    10  H    0.020519
    11  H    0.020519
 Sum of Mulliken charges =   0.00000

 Dipole moment (field-independent basis, Debye):
    X=             -2.4835    Y=              0.3403    Z=              0.0000  Tot=              2.5067
 Quadrupole moment (field-independent basis, Debye-Ang):
   XX=            -36.6642   YY=            -32.9722   ZZ=            -33.0766
   XY=             -0.1565   XZ=              0.0000   YZ=              0.0000

  Exact polarizability:  67.501   0.069  48.786   0.000   0.000  45.907
 Approx polarizability:  50.918  -1.637  44.604   0.000   0.000  43.984

                      1                      2                      3
                      A                      A                      A
 Frequencies --    117.1185               235.3746               235.6454
 Red. masses --      2.5206                 1.0920                 3.1324
 Frc consts  --      0.0204                 0.0356                 0.1025
 IR Inten    --      1.4667                 0.0096                 1.8652

                      4                      5                      6
                      A                      A                      A
 Frequencies --    366.3292               748.1479               758.1052
 Red. masses --      4.3938                 1.0745                 4.5880
 Frc consts  --      0.3474                 0.3543                 1.5536
 IR Inten    --      2.3415                 2.1884                32.3361

                      7                      8                      9
                      A                      A                      A
 Frequencies --    865.8631               916.9360              1065.7361
 Red. masses --      1.1695                 1.7742                 2.5708
 Frc consts  --      0.5166                 0.8789                 1.7203
 IR Inten    --      0.0572                13.3606                 1.1880

                     10                     11                     12
                      A                      A                      A
 Frequencies --   1094.7312              1128.7257              1238.8250
 Red. masses --      1.2447                 2.1672                 1.3519
 Frc consts  --      0.8789                 1.6268                 1.2224
 IR Inten    --      0.7465                 0.2050                 0.3884

                     13                     14                     15
                      A                      A                      A
 Frequencies --   1273.5096              1310.6313              1359.8651
 Red. masses --      1.2335                 1.1033                 1.4980
 Frc consts  --      1.1787                 1.1166                 1.6321
 IR Inten    --     20.6365                 0.0094                 8.6983

                     16                     17                     18
                      A                      A                      A
 Frequencies --   1394.7088              1475.7003              1480.8525
 Red. masses --      1.2676                 1.0975                 1.0577
 Frc consts  --      1.4527                 1.4081                 1.3666
 IR Inten    --      1.4907                 1.6291                 0.4668

                     19                     20                     21
                      A                      A                      A
 Frequencies --   1490.1234              1495.8813              3061.0001
 Red. masses --      1.0374                 1.0842                 1.0365
 Frc consts  --      1.3572                 1.4293                 5.7218
 IR Inten    --      7.2045                 6.0065                21.6863

                     22                     23                     24
                      A                      A                      A
 Frequencies --   3081.5524              3104.7838              3130.5160
 Red. masses --      1.0603                 1.0572                 1.1026
 Frc consts  --      5.9324                 6.0046                 6.3667
 IR Inten    --      8.0309                25.2280                 0.0327

                     25                     26                     27
                      A                      A                      A
 Frequencies --   3151.9345              3160.0798              3178.0042
 Red. masses --      1.1034                 1.1011                 1.1104
 Frc consts  --      6.4589                 6.4782                 6.6078
 IR Inten    --     26.5256                22.9882                15.7399

 - Thermochemistry -
 -------------------
 Temperature   528.500 Kelvin.  Pressure   1.00000 Atm.
 Atom     1 has atomic number  6 and mass  12.00000

 Molecular mass:    78.02363 amu.
 Principal axes and moments of inertia in atomic units:
                           1         2         3
     Eigenvalues --    70.50902 765.90453 802.07177
           X            0.99312  -0.11710   0.00000
           Y            0.11710   0.99312   0.00000
           Z            0.00000   0.00000   1.00000
 This molecule is an asymmetric top.
 Rotational symmetry number  1.
 Rotational temperatures (Kelvin)      1.22841     0.11309     0.10799
 Rotational constants (GHZ):          25.59589     2.35635     2.25010
 Zero-point vibrational energy     250741.4 (Joules/Mol)
                                   59.92862 (Kcal/Mol)
 Warning -- explicit consideration of  10 degrees of freedom as
           vibrations may cause significant error
 Vibrational temperatures:    168.51   338.65   339.04   527.07  1076.42
          (Kelvin)           1090.74  1245.78  1319.26  1533.35  1575.07
                             1623.98  1782.39  1832.29  1885.70  1956.54
                             2006.67  2123.20  2130.61  2143.95  2152.24
                             4404.09  4433.66  4467.09  4504.11  4534.93
                             4546.64  4572.43

 Zero-point correction=                           0.095502 (Hartree/Particle)
 Thermal correction to Energy=                    0.109275
 Thermal correction to Enthalpy=                  0.110949
 Thermal correction to Gibbs Free Energy=         0.037410
 Sum of electronic and zero-point Energies=           -577.709424
 Sum of electronic and thermal Energies=              -577.695652
 Sum of electronic and thermal Enthalpies=            -577.693978
 Sum of electronic and thermal Free Energies=         -577.767516

                     E (Thermal)             CV                S
                      KCal/Mol        Cal/Mol-Kelvin    Cal/Mol-Kelvin
 Total                   68.571             28.227             87.315
 Electronic               0.000              0.000              0.000
 Translational            1.575              2.981             41.822
 Rotational               1.575              2.981             26.981
 Vibrational             65.420             22.265             18.512
 Vibration     1          1.059              1.970              4.267
 Vibration     2          1.086              1.921              2.905
 Vibration     3          1.086              1.920              2.903
 Vibration     4          1.136              1.830              2.073
 Vibration     5          1.390              1.422              0.885
 Vibration     6          1.399              1.410              0.866
 Vibration     7          1.497              1.276              0.688
 Vibration     8          1.546              1.212              0.616
 Vibration     9          1.701              1.029              0.448
 Vibration    10          1.732              0.995              0.420

 Optimization completed.
    -- Stationary point found.
 Normal termination of Gaussian 09 at Mon Oct 26 20:25:38 2015.
