 Gaussian 09, Revision D.01,
 Gaussian 09:  ES64L-G09RevD.01 24-Apr-2013

 ------------------------------------------------
 #p rmp2/aug-cc-pVDZ opt(maxcycle=99) freq nosymm
 ------------------------------------------------

 -----------------------------------------
 CH3CHClCH3 - optimization and frequencies
 -----------------------------------------
 Symbolic Z-matrix:
 Charge =  0 Multiplicity = 1

 SCF Done:  E(RHF) =  -577.207104097     A.U. after   12 cycles
 E2 =    -0.6035181431D+00 EUMP2 =    -0.57781062223992D+03
 SCF Done:  E(RHF) =  -577.206769776     A.U. after   10 cycles
 E2 =    -0.6039810220D+00 EUMP2 =    -0.57781075079848D+03
 SCF Done:  E(RHF) =  -577.206779501     A.U. after    9 cycles
 E2 =    -0.6039754945D+00 EUMP2 =    -0.57781075499531D+03
 Optimization completed.
    -- Stationary point found.
 Normal termination of Gaussian 09 at Mon Nov  9 12:03:41 2015.

 ----------------------------------------------------------------------
 #P Geom=AllCheck Guess=TCheck SCRF=Check GenChk RMP2(FC)/Aug-CC-pVDZ F
 req
 ----------------------------------------------------------------------

 Structure from the checkpoint file:  "CH3CHClCH3_MP2_aug-cc-pVDZ_opt_freq_298K.chk"
 -----------------------------------------
 CH3CHClCH3 - optimization and frequencies
 -----------------------------------------
 Charge =  0 Multiplicity = 1

                          Input orientation:
 ---------------------------------------------------------------------
 Center     Atomic      Atomic             Coordinates (Angstroms)
 Number     Number       Type             X           Y           Z
 ---------------------------------------------------------------------
      1          6           0       -1.059921    1.271327   -0.120177
      2          6           0       -0.408696    0.000000    0.409165
      3          6           0       -1.059921   -1.271327   -0.120177
      4         17           0        1.353383    0.000000   -0.059951
      5          1           0       -0.555469    2.167305    0.269395
      6          1           0       -1.016347    1.292949   -1.220266
      7          1           0       -2.117534    1.297922    0.192195
      8          1           0       -0.398782    0.000000    1.509467
      9          1           0       -0.555468   -2.167305    0.269395
     10          1           0       -2.117533   -1.297922    0.192195
     11          1           0       -1.016347   -1.292949   -1.220266
 ---------------------------------------------------------------------

 SCF Done:  E(RHF) =  -577.206779501     A.U. after    1 cycles
 E2 =    -0.6039754947D+00 EUMP2 =    -0.57781075499562D+03
 E2 =    -0.6039754947D+00 EUMP2 =    -0.57781075499562D+03

 Alpha  occ. eigenvalues -- -104.81218 -11.30860 -11.24222 -11.24220 -10.53846
 Alpha  occ. eigenvalues --   -8.00597  -8.00303  -8.00299  -1.14274  -1.01549
 Alpha  occ. eigenvalues --   -0.95048  -0.79708  -0.64640  -0.61194  -0.58741
 Alpha  occ. eigenvalues --   -0.55255  -0.51599  -0.51025  -0.48706  -0.42698
 Alpha  occ. eigenvalues --   -0.42694
 Alpha virt. eigenvalues --    0.03454   0.04769   0.04790   0.05659   0.07319
 Alpha virt. eigenvalues --    0.07372   0.07722   0.09898   0.12749   0.13393
 Alpha virt. eigenvalues --    0.15054   0.15102   0.16294   0.16895   0.17440

 Mulliken charges:
               1
     1  C    0.567503
     2  C   -0.830171
     3  C    0.567503
     4  Cl  -0.194614
     5  H   -0.038399
     6  H    0.011439
     7  H   -0.008718
     8  H   -0.038866
     9  H   -0.038399
    10  H   -0.008718
    11  H    0.011439
 Sum of Mulliken charges =   0.00000

 Dipole moment (field-independent basis, Debye):
    X=             -2.4522    Y=              0.0000    Z=              0.5157  Tot=              2.5058
 Quadrupole moment (field-independent basis, Debye-Ang):
   XX=            -34.9469   YY=            -33.0590   ZZ=            -32.9360
   XY=              0.0000   XZ=             -0.3464   YZ=              0.0000

  Exact polarizability:  61.710   0.000  53.418  -0.983   0.000  46.939
 Approx polarizability:  51.745   0.000  44.226  -1.655   0.000  44.825

                      1                      2                      3
                      A                      A                      A
 Frequencies --    245.1254               279.6741               328.8730
 Red. masses --      1.0286                 1.0876                 3.1837
 Frc consts  --      0.0364                 0.0501                 0.2029
 IR Inten    --      0.0202                 0.1207                 1.4791

                      4                      5                      6
                      A                      A                      A
 Frequencies --    340.4355               424.0684               645.9920
 Red. masses --      2.4068                 2.3535                 3.7293
 Frc consts  --      0.1643                 0.2494                 0.9169
 IR Inten    --      1.1360                 1.6334                23.6034

                      7                      8                      9
                      A                      A                      A
 Frequencies --    917.3170               929.6981               951.0598
 Red. masses --      2.4404                 1.1383                 1.3935
 Frc consts  --      1.2099                 0.5797                 0.7426
 IR Inten    --      9.0564                 0.8509                 0.0215

                     10                     11                     12
                      A                      A                      A
 Frequencies --   1075.2871              1165.6507              1183.6462
 Red. masses --      1.4060                 2.0634                 1.9436
 Frc consts  --      0.9578                 1.6518                 1.6044
 IR Inten    --     12.7134                 1.7586                14.1977

                     13                     14                     15
                      A                      A                      A
 Frequencies --   1284.9757              1346.8767              1391.9542
 Red. masses --      1.2211                 1.3251                 1.4324
 Frc consts  --      1.1879                 1.4163                 1.6352
 IR Inten    --     30.2084                 0.4054                11.7381

                     16                     17                     18
                      A                      A                      A
 Frequencies --   1401.8373              1469.4126              1474.3478
 Red. masses --      1.2561                 1.0530                 1.0422
 Frc consts  --      1.4544                 1.3396                 1.3347
 IR Inten    --      6.1834                 2.0395                 0.0443

                     19                     20                     21
                      A                      A                      A
 Frequencies --   1481.8950              1496.5931              3058.4454
 Red. masses --      1.0461                 1.0452                 1.0364
 Frc consts  --      1.3535                 1.3793                 5.7118
 IR Inten    --      7.6848                 7.4896                11.8716

                     22                     23                     24
                      A                      A                      A
 Frequencies --   3061.1016              3118.8096              3149.5435
 Red. masses --      1.0364                 1.0872                 1.1008
 Frc consts  --      5.7218                 6.2305                 6.4336
 IR Inten    --     18.9403                 3.1839                 0.8420

                     25                     26                     27
                      A                      A                      A
 Frequencies --   3155.2754              3172.7076              3175.6493
 Red. masses --      1.0999                 1.1027                 1.1024
 Frc consts  --      6.4518                 6.5401                 6.5504
 IR Inten    --     33.0378                11.4202                17.5891

 - Thermochemistry -
 -------------------
 Temperature   298.150 Kelvin.  Pressure   1.00000 Atm.
 Atom     1 has atomic number  6 and mass  12.00000

 Molecular mass:    78.02363 amu.
 Principal axes and moments of inertia in atomic units:
                           1         2         3
     Eigenvalues --   225.02259 399.41425 567.37757
           X            0.99994   0.00000   0.01050
           Y            0.00000   1.00000   0.00000
           Z           -0.01050   0.00000   0.99994
 This molecule is an asymmetric top.
 Rotational symmetry number  1.
 Rotational temperatures (Kelvin)      0.38491     0.21685     0.15266
 Rotational constants (GHZ):           8.02027     4.51847     3.18085
 Zero-point vibrational energy     249578.4 (Joules/Mol)
                                   59.65067 (Kcal/Mol)
 Warning -- explicit consideration of   5 degrees of freedom as
           vibrations may cause significant error
 Vibrational temperatures:    352.68   402.39   473.17   489.81   610.14
          (Kelvin)            929.44  1319.81  1337.63  1368.36  1547.10
                             1677.11  1703.00  1848.79  1937.85  2002.71
                             2016.93  2114.15  2121.25  2132.11  2153.26
                             4400.42  4404.24  4487.27  4531.48  4539.73
                             4564.81  4569.05

 Zero-point correction=                           0.095059 (Hartree/Particle)
 Thermal correction to Energy=                    0.100277
 Thermal correction to Enthalpy=                  0.101221
 Thermal correction to Gibbs Free Energy=         0.066957
 Sum of electronic and zero-point Energies=           -577.715696
 Sum of electronic and thermal Energies=              -577.710478
 Sum of electronic and thermal Enthalpies=            -577.709534
 Sum of electronic and thermal Free Energies=         -577.743798

                     E (Thermal)             CV                S
                      KCal/Mol        Cal/Mol-Kelvin    Cal/Mol-Kelvin
 Total                   62.925             17.945             72.115
 Electronic               0.000              0.000              0.000
 Translational            0.889              2.981             38.978
 Rotational               0.889              2.981             25.437
 Vibrational             61.147             11.984              7.700
 Vibration     1          0.660              1.771              1.765
 Vibration     2          0.680              1.711              1.536
 Vibration     3          0.712              1.618              1.266
 Vibration     4          0.720              1.595              1.210
 Vibration     5          0.786              1.418              0.878

 Optimization completed.
    -- Stationary point found.
 Normal termination of Gaussian 09 at Mon Nov  9 12:08:07 2015.
